  42  42   0   0
  0.1047493E+02  0.4613403E-09  0.4613403E-09  0.2067082E-08  0.5000000E-15
  1.000000000000000E-004
  CAR 
 (CrO2)3(TiO2)11 superlattice            
      7.80872247    -26.04592762  301      3.63973239      1.00000000
    -26.046  0.0000E+00  0.0000E+00  0.0000E+00  0.0000E+00
    -25.933  0.0000E+00  0.0000E+00  0.0000E+00  0.0000E+00
    -25.820  0.0000E+00  0.0000E+00  0.0000E+00  0.0000E+00
    -25.707  0.0000E+00  0.0000E+00  0.0000E+00  0.0000E+00
    -25.595  0.0000E+00  0.0000E+00  0.0000E+00  0.0000E+00
    -25.482  0.0000E+00  0.0000E+00  0.0000E+00  0.0000E+00
    -25.369  0.0000E+00  0.0000E+00  0.0000E+00  0.0000E+00
    -25.256  0.0000E+00  0.0000E+00  0.0000E+00  0.0000E+00
    -25.143  0.0000E+00  0.0000E+00  0.0000E+00  0.0000E+00
    -25.030  0.0000E+00  0.0000E+00  0.0000E+00  0.0000E+00
    -24.917  0.0000E+00  0.0000E+00  0.0000E+00  0.0000E+00
    -24.805  0.0000E+00  0.0000E+00  0.0000E+00  0.0000E+00
    -24.692  0.0000E+00  0.0000E+00  0.0000E+00  0.0000E+00
    -24.579  0.0000E+00  0.0000E+00  0.0000E+00  0.0000E+00
    -24.466  0.6299E+01  0.8851E+01  0.7108E+00  0.9988E+00
    -24.353  0.0000E+00  0.0000E+00  0.1000E+01  0.1000E+01
    -24.240  0.0000E+00  0.0000E+00  0.1000E+01  0.1000E+01
    -24.127  0.0000E+00  0.0000E+00  0.1000E+01  0.1000E+01
    -24.015  0.0000E+00  0.0000E+00  0.1000E+01  0.1000E+01
    -23.902  0.0000E+00  0.0000E+00  0.1000E+01  0.1000E+01
    -23.789  0.0000E+00  0.0000E+00  0.1000E+01  0.1000E+01
    -23.676  0.0000E+00  0.0000E+00  0.1000E+01  0.1000E+01
    -23.563  0.0000E+00  0.0000E+00  0.1000E+01  0.1000E+01
    -23.450  0.0000E+00  0.0000E+00  0.1000E+01  0.1000E+01
    -23.338  0.0000E+00  0.0000E+00  0.1000E+01  0.1000E+01
    -23.225  0.0000E+00  0.0000E+00  0.1000E+01  0.1000E+01
    -23.112  0.0000E+00  0.0000E+00  0.1000E+01  0.1000E+01
    -22.999  0.0000E+00  0.0000E+00  0.1000E+01  0.1000E+01
    -22.886  0.0000E+00  0.0000E+00  0.1000E+01  0.1000E+01
    -22.773  0.0000E+00  0.0000E+00  0.1000E+01  0.1000E+01
    -22.660  0.0000E+00  0.0000E+00  0.1000E+01  0.1000E+01
    -22.548  0.0000E+00  0.0000E+00  0.1000E+01  0.1000E+01
    -22.435  0.0000E+00  0.0000E+00  0.1000E+01  0.1000E+01
    -22.322  0.0000E+00  0.0000E+00  0.1000E+01  0.1000E+01
    -22.209  0.0000E+00  0.0000E+00  0.1000E+01  0.1000E+01
    -22.096  0.0000E+00  0.0000E+00  0.1000E+01  0.1000E+01
    -21.983  0.0000E+00  0.0000E+00  0.1000E+01  0.1000E+01
    -21.871  0.0000E+00  0.0000E+00  0.1000E+01  0.1000E+01
    -21.758  0.0000E+00  0.0000E+00  0.1000E+01  0.1000E+01
    -21.645  0.0000E+00  0.0000E+00  0.1000E+01  0.1000E+01
    -21.532  0.0000E+00  0.0000E+00  0.1000E+01  0.1000E+01
    -21.419  0.0000E+00  0.0000E+00  0.1000E+01  0.1000E+01
    -21.306  0.3329E-10  0.9945E-09  0.1000E+01  0.1000E+01
    -21.193  0.8861E+01  0.8861E+01  0.2000E+01  0.2000E+01
    -21.081  0.0000E+00  0.0000E+00  0.2000E+01  0.2000E+01
    -20.968  0.0000E+00  0.0000E+00  0.2000E+01  0.2000E+01
    -20.855  0.0000E+00  0.0000E+00  0.2000E+01  0.2000E+01
    -20.742  0.0000E+00  0.0000E+00  0.2000E+01  0.2000E+01
    -20.629  0.0000E+00  0.0000E+00  0.2000E+01  0.2000E+01
    -20.516  0.0000E+00  0.0000E+00  0.2000E+01  0.2000E+01
    -20.403  0.0000E+00  0.0000E+00  0.2000E+01  0.2000E+01
    -20.291  0.0000E+00  0.0000E+00  0.2000E+01  0.2000E+01
    -20.178  0.0000E+00  0.0000E+00  0.2000E+01  0.2000E+01
    -20.065  0.0000E+00  0.0000E+00  0.2000E+01  0.2000E+01
    -19.952  0.2210E-13  0.0000E+00  0.2000E+01  0.2000E+01
    -19.839  0.8850E+01  0.1678E+01  0.2999E+01  0.2189E+01
    -19.726  0.0000E+00  0.0000E+00  0.3000E+01  0.3000E+01
    -19.614  0.0000E+00  0.0000E+00  0.3000E+01  0.3000E+01
    -19.501  0.0000E+00  0.0000E+00  0.3000E+01  0.3000E+01
    -19.388  0.0000E+00  0.0000E+00  0.3000E+01  0.3000E+01
    -19.275  0.0000E+00  0.0000E+00  0.3000E+01  0.3000E+01
    -19.162  0.0000E+00  0.0000E+00  0.3000E+01  0.3000E+01
    -19.049  0.0000E+00  0.0000E+00  0.3000E+01  0.3000E+01
    -18.936  0.0000E+00  0.0000E+00  0.3000E+01  0.3000E+01
    -18.824  0.0000E+00  0.0000E+00  0.3000E+01  0.3000E+01
    -18.711  0.0000E+00  0.0000E+00  0.3000E+01  0.3000E+01
    -18.598  0.0000E+00  0.0000E+00  0.3000E+01  0.3000E+01
    -18.485  0.0000E+00  0.0000E+00  0.3000E+01  0.3000E+01
    -18.372  0.0000E+00  0.0000E+00  0.3000E+01  0.3000E+01
    -18.259  0.0000E+00  0.0000E+00  0.3000E+01  0.3000E+01
    -18.147  0.0000E+00  0.0000E+00  0.3000E+01  0.3000E+01
    -18.034  0.0000E+00  0.0000E+00  0.3000E+01  0.3000E+01
    -17.921  0.3035E-03  0.3332E+00  0.3000E+01  0.3038E+01
    -17.808  0.8129E+01  0.5493E+01  0.4000E+01  0.4000E+01
    -17.695  0.0000E+00  0.0000E+00  0.4000E+01  0.4000E+01
    -17.582  0.0000E+00  0.0000E+00  0.4000E+01  0.4000E+01
    -17.469  0.0000E+00  0.0000E+00  0.4000E+01  0.4000E+01
    -17.357  0.0000E+00  0.0000E+00  0.4000E+01  0.4000E+01
    -17.244  0.0000E+00  0.0000E+00  0.4000E+01  0.4000E+01
    -17.131  0.0000E+00  0.0000E+00  0.4000E+01  0.4000E+01
    -17.018  0.0000E+00  0.0000E+00  0.4000E+01  0.4000E+01
    -16.905  0.0000E+00  0.0000E+00  0.4000E+01  0.4000E+01
    -16.792  0.2515E+01  0.3109E+01  0.4284E+01  0.4351E+01
    -16.679  0.3991E+01  0.3702E+01  0.4930E+01  0.4980E+01
    -16.567  0.9081E+00  0.3266E-01  0.5102E+01  0.5004E+01
    -16.454  0.1183E+01  0.1163E+01  0.5307E+01  0.5173E+01
    -16.341  0.1744E+01  0.1451E+01  0.5569E+01  0.5354E+01
    -16.228  0.2651E+01  0.1784E+01  0.5936E+01  0.5573E+01
    -16.115  0.5281E+01  0.2734E+01  0.6761E+01  0.5978E+01
    -16.002  0.3074E+00  0.4715E+01  0.7035E+01  0.6697E+01
    -15.890  0.3176E+01  0.1944E+01  0.7433E+01  0.7170E+01
    -15.777  0.5209E+01  0.6769E+01  0.8323E+01  0.8119E+01
    -15.664  0.4582E+01  0.4960E+01  0.9013E+01  0.8899E+01
    -15.551  0.6735E+01  0.6996E+01  0.1007E+02  0.1003E+02
    -15.438  0.5829E+01  0.5973E+01  0.1108E+02  0.1096E+02
    -15.325  0.4396E+01  0.3878E+01  0.1177E+02  0.1158E+02
    -15.212  0.2174E+01  0.2524E+01  0.1220E+02  0.1217E+02
    -15.100  0.8426E+01  0.8137E+01  0.1338E+02  0.1323E+02
    -14.987  0.6343E+01  0.5159E+01  0.1446E+02  0.1433E+02
    -14.874  0.1023E+02  0.1210E+02  0.1601E+02  0.1595E+02
    -14.761  0.7533E+01  0.7851E+01  0.1726E+02  0.1720E+02
    -14.648  0.1130E+02  0.1239E+02  0.1892E+02  0.1891E+02
    -14.535  0.1071E+02  0.1084E+02  0.2073E+02  0.2073E+02
    -14.422  0.9437E+01  0.9873E+01  0.2219E+02  0.2221E+02
    -14.310  0.4174E+01  0.3589E+01  0.2300E+02  0.2300E+02
    -14.197  0.3375E+01  0.3286E+01  0.2338E+02  0.2337E+02
    -14.084  0.2354E+01  0.2633E+01  0.2378E+02  0.2378E+02
    -13.971  0.1531E+01  0.1542E+01  0.2400E+02  0.2400E+02
    -13.858  0.1698E+01  0.1712E+01  0.2428E+02  0.2428E+02
    -13.745  0.2756E+01  0.2792E+01  0.2465E+02  0.2465E+02
    -13.633  0.1172E+01  0.8788E+00  0.2500E+02  0.2500E+02
    -13.520  0.0000E+00  0.0000E+00  0.2500E+02  0.2500E+02
    -13.407  0.0000E+00  0.0000E+00  0.2500E+02  0.2500E+02
    -13.294  0.0000E+00  0.0000E+00  0.2500E+02  0.2500E+02
    -13.181  0.0000E+00  0.0000E+00  0.2500E+02  0.2500E+02
    -13.068  0.0000E+00  0.0000E+00  0.2500E+02  0.2500E+02
    -12.955  0.0000E+00  0.0000E+00  0.2500E+02  0.2500E+02
    -12.843  0.0000E+00  0.0000E+00  0.2500E+02  0.2500E+02
    -12.730  0.0000E+00  0.0000E+00  0.2500E+02  0.2500E+02
    -12.617  0.0000E+00  0.0000E+00  0.2500E+02  0.2500E+02
    -12.504  0.0000E+00  0.0000E+00  0.2500E+02  0.2500E+02
    -12.391  0.0000E+00  0.0000E+00  0.2500E+02  0.2500E+02
    -12.278  0.0000E+00  0.0000E+00  0.2500E+02  0.2500E+02
    -12.166  0.0000E+00  0.0000E+00  0.2500E+02  0.2500E+02
    -12.053  0.0000E+00  0.0000E+00  0.2500E+02  0.2500E+02
    -11.940  0.5019E+00  0.2368E-01  0.2506E+02  0.2500E+02
    -11.827  0.3089E+01  0.2839E+01  0.2551E+02  0.2539E+02
    -11.714  0.3208E+01  0.2642E+01  0.2600E+02  0.2582E+02
    -11.601  0.0000E+00  0.0000E+00  0.2600E+02  0.2600E+02
    -11.488  0.0000E+00  0.0000E+00  0.2600E+02  0.2600E+02
    -11.376  0.0000E+00  0.0000E+00  0.2600E+02  0.2600E+02
    -11.263  0.0000E+00  0.0000E+00  0.2600E+02  0.2600E+02
    -11.150  0.0000E+00  0.0000E+00  0.2600E+02  0.2600E+02
    -11.037  0.0000E+00  0.0000E+00  0.2600E+02  0.2600E+02
    -10.924  0.1389E+01  0.2101E+01  0.2616E+02  0.2624E+02
    -10.811  0.2384E+01  0.2372E+01  0.2656E+02  0.2662E+02
    -10.698  0.1688E+01  0.1440E+01  0.2684E+02  0.2688E+02
    -10.586  0.1025E+01  0.5859E+00  0.2700E+02  0.2700E+02
    -10.473  0.9987E+00  0.1102E+01  0.2711E+02  0.2712E+02
    -10.360  0.2551E+01  0.2453E+01  0.2749E+02  0.2751E+02
    -10.247  0.1610E+01  0.1356E+01  0.2781E+02  0.2781E+02
    -10.134  0.8602E+00  0.8796E+00  0.2794E+02  0.2794E+02
    -10.021  0.3662E+00  0.7323E-01  0.2800E+02  0.2800E+02
     -9.909  0.0000E+00  0.0000E+00  0.2800E+02  0.2800E+02
     -9.796  0.0000E+00  0.0000E+00  0.2800E+02  0.2800E+02
     -9.683  0.0000E+00  0.0000E+00  0.2800E+02  0.2800E+02
     -9.570  0.0000E+00  0.0000E+00  0.2800E+02  0.2800E+02
     -9.457  0.0000E+00  0.0000E+00  0.2800E+02  0.2800E+02
     -9.344  0.0000E+00  0.0000E+00  0.2800E+02  0.2800E+02
     -9.231  0.0000E+00  0.0000E+00  0.2800E+02  0.2800E+02
     -9.119  0.0000E+00  0.0000E+00  0.2800E+02  0.2800E+02
     -9.006  0.0000E+00  0.0000E+00  0.2800E+02  0.2800E+02
     -8.893  0.0000E+00  0.0000E+00  0.2800E+02  0.2800E+02
     -8.780  0.0000E+00  0.0000E+00  0.2800E+02  0.2800E+02
     -8.667  0.0000E+00  0.0000E+00  0.2800E+02  0.2800E+02
     -8.554  0.0000E+00  0.0000E+00  0.2800E+02  0.2800E+02
     -8.442  0.0000E+00  0.0000E+00  0.2800E+02  0.2800E+02
     -8.329  0.0000E+00  0.0000E+00  0.2800E+02  0.2800E+02
     -8.216  0.0000E+00  0.0000E+00  0.2800E+02  0.2800E+02
     -8.103  0.0000E+00  0.0000E+00  0.2800E+02  0.2800E+02
     -7.990  0.0000E+00  0.0000E+00  0.2800E+02  0.2800E+02
     -7.877  0.0000E+00  0.0000E+00  0.2800E+02  0.2800E+02
     -7.764  0.0000E+00  0.0000E+00  0.2800E+02  0.2800E+02
     -7.652  0.0000E+00  0.0000E+00  0.2800E+02  0.2800E+02
     -7.539  0.0000E+00  0.0000E+00  0.2800E+02  0.2800E+02
     -7.426  0.0000E+00  0.0000E+00  0.2800E+02  0.2800E+02
     -7.313  0.0000E+00  0.0000E+00  0.2800E+02  0.2800E+02
     -7.200  0.0000E+00  0.0000E+00  0.2800E+02  0.2800E+02
     -7.087  0.0000E+00  0.0000E+00  0.2800E+02  0.2800E+02
     -6.974  0.0000E+00  0.0000E+00  0.2800E+02  0.2800E+02
     -6.862  0.5057E-04  0.8459E-02  0.2800E+02  0.2800E+02
     -6.749  0.1670E+01  0.1866E+01  0.2821E+02  0.2824E+02
     -6.636  0.2682E+01  0.2866E+01  0.2863E+02  0.2869E+02
     -6.523  0.1982E+01  0.1522E+01  0.2893E+02  0.2894E+02
     -6.410  0.1706E+01  0.1161E+01  0.2916E+02  0.2920E+02
     -6.297  0.2074E+01  0.1572E+01  0.2947E+02  0.2947E+02
     -6.185  0.1390E+01  0.1445E+01  0.2983E+02  0.2984E+02
     -6.072  0.1044E+01  0.7939E+00  0.2998E+02  0.2998E+02
     -5.959  0.1473E+00  0.1474E+00  0.3000E+02  0.3000E+02
     -5.846  0.1212E+01  0.1285E+01  0.3017E+02  0.3018E+02
     -5.733  0.6048E-01  0.1286E+00  0.3028E+02  0.3029E+02
     -5.620  0.4394E+00  0.2929E+00  0.3045E+02  0.3045E+02
     -5.507  0.1245E+01  0.1374E+01  0.3060E+02  0.3061E+02
     -5.395  0.1363E-03  0.2195E-01  0.3064E+02  0.3064E+02
     -5.282  0.8178E+00  0.5850E+00  0.3081E+02  0.3082E+02
     -5.169  0.1080E+01  0.1277E+01  0.3094E+02  0.3096E+02
     -5.056  0.1465E+00  0.0000E+00  0.3100E+02  0.3100E+02
     -4.943  0.1205E-07  0.0000E+00  0.3100E+02  0.3100E+02
     -4.830  0.1602E+01  0.1424E+01  0.3118E+02  0.3116E+02
     -4.717  0.2713E+01  0.2773E+01  0.3149E+02  0.3149E+02
     -4.605  0.1465E+01  0.1465E+01  0.3200E+02  0.3200E+02
     -4.492  0.0000E+00  0.0000E+00  0.3200E+02  0.3200E+02
     -4.379  0.1626E-15  0.0000E+00  0.3200E+02  0.3200E+02
     -4.266  0.6033E+01  0.2075E+01  0.3268E+02  0.3223E+02
     -4.153  0.4686E+01  0.5049E+01  0.3348E+02  0.3329E+02
     -4.040  0.1060E+01  0.1277E+01  0.3370E+02  0.3371E+02
     -3.928  0.1605E+01  0.8645E+00  0.3391E+02  0.3389E+02
     -3.815  0.1419E+01  0.6490E+00  0.3415E+02  0.3400E+02
     -3.702  0.1467E+01  0.0000E+00  0.3440E+02  0.3400E+02
     -3.589  0.6522E+01  0.1218E+01  0.3542E+02  0.3414E+02
     -3.476  0.3621E+01  0.5234E+01  0.3616E+02  0.3492E+02
     -3.363  0.5994E+01  0.4148E+01  0.3707E+02  0.3565E+02
     -3.250  0.6227E+01  0.7475E+01  0.3813E+02  0.3683E+02
     -3.138  0.8378E+01  0.7820E+01  0.3947E+02  0.3816E+02
     -3.025  0.9900E+01  0.9902E+01  0.4096E+02  0.3955E+02
     -2.912  0.8315E+01  0.7952E+01  0.4224E+02  0.4068E+02
     -2.799  0.8840E+01  0.1006E+02  0.4371E+02  0.4216E+02
     -2.686  0.9448E+01  0.1004E+02  0.4527E+02  0.4379E+02
     -2.573  0.1330E+02  0.1514E+02  0.4725E+02  0.4611E+02
     -2.461  0.7501E+01  0.9806E+01  0.4875E+02  0.4785E+02
     -2.348  0.8013E+01  0.8183E+01  0.5012E+02  0.4915E+02
     -2.235  0.9974E+01  0.1197E+02  0.5193E+02  0.5112E+02
     -2.122  0.9909E+01  0.7900E+01  0.5350E+02  0.5261E+02
     -2.009  0.6609E+01  0.6421E+01  0.5449E+02  0.5359E+02
     -1.896  0.8864E+01  0.9945E+01  0.5580E+02  0.5502E+02
     -1.783  0.9718E+01  0.6992E+01  0.5733E+02  0.5621E+02
     -1.671  0.8479E+01  0.8238E+01  0.5877E+02  0.5762E+02
     -1.558  0.7396E+01  0.9013E+01  0.6012E+02  0.5921E+02
     -1.445  0.9581E+01  0.1176E+02  0.6168E+02  0.6077E+02
     -1.332  0.7317E+01  0.6911E+01  0.6273E+02  0.6207E+02
     -1.219  0.5430E+01  0.5383E+01  0.6355E+02  0.6307E+02
     -1.106  0.7773E+01  0.7026E+01  0.6455E+02  0.6405E+02
     -0.993  0.8272E+01  0.5768E+01  0.6580E+02  0.6501E+02
     -0.881  0.1238E+02  0.1140E+02  0.6779E+02  0.6677E+02
     -0.768  0.8158E+01  0.7774E+01  0.6907E+02  0.6820E+02
     -0.655  0.6819E+01  0.9297E+01  0.7030E+02  0.6966E+02
     -0.542  0.9180E+01  0.9795E+01  0.7176E+02  0.7129E+02
     -0.429  0.9940E+01  0.7421E+01  0.7336E+02  0.7263E+02
     -0.316  0.1045E+02  0.9608E+01  0.7491E+02  0.7425E+02
     -0.204  0.8901E+01  0.9143E+01  0.7633E+02  0.7563E+02
     -0.091  0.8790E+01  0.1121E+02  0.7776E+02  0.7736E+02
      0.022  0.9202E+01  0.7973E+01  0.7919E+02  0.7870E+02
      0.135  0.9374E+01  0.9301E+01  0.8068E+02  0.8021E+02
      0.248  0.1020E+02  0.9115E+01  0.8205E+02  0.8157E+02
      0.361  0.1131E+02  0.8739E+01  0.8380E+02  0.8292E+02
      0.474  0.1042E+02  0.1027E+02  0.8540E+02  0.8440E+02
      0.586  0.1136E+02  0.1173E+02  0.8708E+02  0.8605E+02
      0.699  0.1117E+02  0.8316E+01  0.8906E+02  0.8754E+02
      0.812  0.1060E+02  0.9838E+01  0.9084E+02  0.8924E+02
      0.925  0.1320E+02  0.8806E+01  0.9296E+02  0.9070E+02
      1.038  0.9168E+01  0.7176E+01  0.9430E+02  0.9176E+02
      1.151  0.7180E+01  0.6188E+01  0.9550E+02  0.9265E+02
      1.263  0.9180E+01  0.9302E+01  0.9708E+02  0.9416E+02
      1.376  0.1435E+02  0.1266E+02  0.9915E+02  0.9587E+02
      1.489  0.7807E+01  0.9145E+01  0.1005E+03  0.9735E+02
      1.602  0.1105E+02  0.8083E+01  0.1024E+03  0.9889E+02
      1.715  0.6823E+01  0.6455E+01  0.1035E+03  0.9990E+02
      1.828  0.5037E+01  0.2879E+01  0.1044E+03  0.1005E+03
      1.941  0.4461E+01  0.2149E+01  0.1051E+03  0.1008E+03
      2.053  0.4580E+01  0.2767E+01  0.1058E+03  0.1013E+03
      2.166  0.5337E+01  0.5126E+01  0.1066E+03  0.1020E+03
      2.279  0.7588E+01  0.3239E+01  0.1079E+03  0.1024E+03
      2.392  0.4797E+01  0.3247E+01  0.1088E+03  0.1030E+03
      2.505  0.3848E+01  0.5403E+01  0.1096E+03  0.1038E+03
      2.618  0.6710E+01  0.3697E+01  0.1106E+03  0.1048E+03
      2.731  0.2749E+01  0.3027E+01  0.1110E+03  0.1054E+03
      2.843  0.5631E+01  0.2402E+01  0.1120E+03  0.1058E+03
      2.956  0.5378E+01  0.4159E+01  0.1127E+03  0.1064E+03
      3.069  0.4981E+01  0.4534E+01  0.1135E+03  0.1070E+03
      3.182  0.4320E+01  0.3451E+01  0.1142E+03  0.1076E+03
      3.295  0.5645E+01  0.2795E+01  0.1150E+03  0.1080E+03
      3.408  0.6272E+01  0.5194E+01  0.1159E+03  0.1087E+03
      3.520  0.2650E+01  0.5553E+01  0.1166E+03  0.1095E+03
      3.633  0.6818E+01  0.5281E+01  0.1175E+03  0.1104E+03
      3.746  0.4776E+01  0.2400E+01  0.1184E+03  0.1108E+03
      3.859  0.1438E+01  0.2721E+01  0.1186E+03  0.1112E+03
      3.972  0.4444E+01  0.5567E+01  0.1193E+03  0.1120E+03
      4.085  0.6534E+01  0.5132E+01  0.1203E+03  0.1129E+03
      4.198  0.6690E+01  0.1909E+01  0.1212E+03  0.1132E+03
      4.310  0.8390E+01  0.8154E+01  0.1224E+03  0.1145E+03
      4.423  0.1043E+02  0.9884E+01  0.1242E+03  0.1161E+03
      4.536  0.9427E+01  0.7489E+01  0.1255E+03  0.1173E+03
      4.649  0.1044E+02  0.9080E+01  0.1271E+03  0.1187E+03
      4.762  0.1201E+02  0.1002E+02  0.1290E+03  0.1204E+03
      4.875  0.1057E+02  0.9978E+01  0.1308E+03  0.1221E+03
      4.988  0.6699E+01  0.1036E+02  0.1319E+03  0.1236E+03
      5.100  0.1115E+02  0.7621E+01  0.1335E+03  0.1249E+03
      5.213  0.1044E+02  0.9002E+01  0.1353E+03  0.1265E+03
      5.326  0.9302E+01  0.9502E+01  0.1367E+03  0.1281E+03
      5.439  0.1004E+02  0.1196E+02  0.1383E+03  0.1301E+03
      5.552  0.1318E+02  0.1367E+02  0.1402E+03  0.1321E+03
      5.665  0.1529E+02  0.1511E+02  0.1427E+03  0.1345E+03
      5.777  0.7600E+01  0.1263E+02  0.1439E+03  0.1365E+03
      5.890  0.0000E+00  0.1295E+02  0.1440E+03  0.1389E+03
      6.003  0.0000E+00  0.1305E+02  0.1440E+03  0.1409E+03
      6.116  0.0000E+00  0.9429E+01  0.1440E+03  0.1426E+03
      6.229  0.0000E+00  0.6645E+01  0.1440E+03  0.1438E+03
      6.342  0.0000E+00  0.2929E+00  0.1440E+03  0.1440E+03
      6.455  0.0000E+00  0.0000E+00  0.1440E+03  0.1440E+03
      6.567  0.0000E+00  0.0000E+00  0.1440E+03  0.1440E+03
      6.680  0.0000E+00  0.0000E+00  0.1440E+03  0.1440E+03
      6.793  0.0000E+00  0.0000E+00  0.1440E+03  0.1440E+03
      6.906  0.0000E+00  0.0000E+00  0.1440E+03  0.1440E+03
      7.019  0.0000E+00  0.0000E+00  0.1440E+03  0.1440E+03
      7.132  0.0000E+00  0.0000E+00  0.1440E+03  0.1440E+03
      7.244  0.0000E+00  0.0000E+00  0.1440E+03  0.1440E+03
      7.357  0.0000E+00  0.0000E+00  0.1440E+03  0.1440E+03
      7.470  0.0000E+00  0.0000E+00  0.1440E+03  0.1440E+03
      7.583  0.0000E+00  0.0000E+00  0.1440E+03  0.1440E+03
      7.696  0.0000E+00  0.0000E+00  0.1440E+03  0.1440E+03
      7.809  0.0000E+00  0.0000E+00  0.1440E+03  0.1440E+03
