   42   42    1    2
  0.1047493E+02  0.4613403E-09  0.4613403E-09  0.2067082E-08  0.5000000E-15
  1.000000000000000E-004
  CAR 
 (CrO2)3(TiO2)11 superlattice            
  228   36  144
 
  0.0000000E+00  0.0000000E+00  0.0000000E+00  0.8264463E-02
   1      -24.486518    -24.507080
   2      -21.238448    -21.242160
   3      -19.901051    -19.856491
   4      -17.860888    -17.884831
   5      -16.718435    -16.727569
   6      -16.643710    -16.565561
   7      -16.084137    -16.017514
   8      -16.032007    -15.952271
   9      -15.787969    -15.753361
  10      -15.762984    -15.729501
  11      -15.591560    -15.585069
  12      -15.497693    -15.476909
  13      -15.119095    -15.100145
  14      -14.924227    -14.880856
  15      -14.835039    -14.831152
  16      -14.823450    -14.813376
  17      -14.788210    -14.794221
  18      -14.673199    -14.665765
  19      -14.603420    -14.602130
  20      -14.553257    -14.556953
  21      -14.474100    -14.472921
  22      -14.414858    -14.418297
  23      -14.378218    -14.377434
  24      -13.983287    -13.984752
  25      -13.942040    -13.939540
  26      -11.962515    -11.934915
  27      -10.940781    -10.957383
  28      -10.068816    -10.079284
  29       -6.681181     -6.694425
  30       -6.066997     -6.078713
  31       -5.866572     -5.866050
  32       -4.705277     -4.707565
  33       -4.320883     -4.264379
  34       -3.809674     -3.822427
  35       -3.694973     -3.523021
  36       -3.621604     -3.497943
  37       -3.492038     -3.496930
  38       -3.456574     -3.422742
  39       -3.382638     -3.262772
  40       -3.296508     -3.226586
  41       -3.237766     -3.075782
  42       -3.098075     -3.067467
  43       -3.023233     -2.966948
  44       -2.998108     -2.902528
  45       -2.814439     -2.802573
  46       -2.656537     -2.648098
  47       -2.598766     -2.540401
  48       -2.592094     -2.426502
  49       -2.438965     -2.281675
  50       -2.301969     -2.245393
  51       -2.188816     -2.144562
  52       -2.158871     -2.060803
  53       -2.130275     -1.937395
  54       -1.968321     -1.903583
  55       -1.957762     -1.869042
  56       -1.928856     -1.865985
  57       -1.907814     -1.851782
  58       -1.884214     -1.845086
  59       -1.857220     -1.689833
  60       -1.600940     -1.467626
  61       -1.478851     -1.442492
  62       -1.470906     -1.437802
  63       -1.439104     -1.231460
  64       -1.298873     -1.217256
  65       -1.230021     -1.185537
  66       -0.926040     -0.912527
  67       -0.840531     -0.815667
  68       -0.835265     -0.768701
  69       -0.772854     -0.718511
  70       -0.709326     -0.716467
  71       -0.599682     -0.534138
  72       -0.568378     -0.508174
  73       -0.511310     -0.426256
  74       -0.457084     -0.389325
  75       -0.428563     -0.385131
  76       -0.416273     -0.359821
  77       -0.292265     -0.217402
  78       -0.156981     -0.153521
  79       -0.102964     -0.086952
  80       -0.085307     -0.058155
  81        0.096686      0.106989
  82        0.214789      0.240958
  83        0.223283      0.325509
  84        0.293893      0.336822
  85        0.314117      0.555379
  86        0.551644      0.649777
  87        0.647180      0.714313
  88        0.651087      0.714460
  89        0.685770      0.811546
  90        0.744168      0.890322
  91        0.787269      0.905075
  92        0.839678      1.023019
  93        0.876637      1.266257
  94        0.987501      1.310238
  95        1.015750      1.345797
  96        1.297006      1.393229
  97        1.298164      1.442579
  98        1.299767      1.550149
  99        1.361143      1.853224
 100        1.440404      1.950472
 101        1.552248      2.205048
 102        1.609202      2.293844
 103        1.758141      2.307952
 104        1.841927      2.565097
 105        2.012728      2.624701
 106        2.137552      2.950395
 107        2.251597      3.280879
 108        2.301251      3.336921
 109        2.583968      3.370377
 110        2.603772      3.382779
 111        2.817631      3.399809
 112        2.944177      3.730764
 113        3.302905      3.969795
 114        3.325938      4.214541
 115        3.372768      4.289747
 116        3.414829      4.469754
 117        3.432176      4.572425
 118        3.445122      4.611158
 119        3.625430      4.659782
 120        3.871939      4.694769
 121        3.909126      4.730111
 122        4.128934      4.776345
 123        4.161230      4.778807
 124        4.254072      4.932923
 125        4.389846      4.949480
 126        4.390901      5.091571
 127        4.469736      5.221407
 128        4.687001      5.234233
 129        4.718440      5.326148
 130        4.757470      5.350310
 131        4.829810      5.399304
 132        4.838879      5.425019
 133        4.916781      5.543534
 134        4.956113      5.619533
 135        5.174673      5.668463
 136        5.186082      5.681236
 137        5.186555      5.755423
 138        5.344492      5.778192
 139        5.409242      5.810500
 140        5.521719      5.831995
 141        5.534064      5.882437
 142        5.564499      5.908488
 143        5.591627      6.040715
 144        5.652193      6.066772
 
  0.9090909E-01  0.0000000E+00  0.0000000E+00  0.3305785E-01
   1      -24.484954    -24.505524
   2      -21.239994    -21.243705
   3      -19.897538    -19.852958
   4      -17.858670    -17.882594
   5      -16.724720    -16.734037
   6      -16.624791    -16.545582
   7      -16.087529    -15.993434
   8      -16.008019    -15.956662
   9      -15.785664    -15.750719
  10      -15.763329    -15.729745
  11      -15.586901    -15.581487
  12      -15.479182    -15.458649
  13      -15.121914    -15.103348
  14      -14.935695    -14.897678
  15      -14.838083    -14.828392
  16      -14.823889    -14.819278
  17      -14.813128    -14.813397
  18      -14.684844    -14.678528
  19      -14.596640    -14.594983
  20      -14.560259    -14.563871
  21      -14.486283    -14.485215
  22      -14.412077    -14.415424
  23      -14.391408    -14.390640
  24      -14.038027    -14.037461
  25      -13.887363    -13.886929
  26      -11.943724    -11.915884
  27      -10.938296    -10.955146
  28      -10.098365    -10.108760
  29       -6.673206     -6.686392
  30       -6.116342     -6.125953
  31       -5.816141     -5.817924
  32       -4.693642     -4.695672
  33       -4.315104     -4.259582
  34       -3.867985     -3.878529
  35       -3.662153     -3.480532
  36       -3.601813     -3.470495
  37       -3.456211     -3.453600
  38       -3.410713     -3.382539
  39       -3.358706     -3.230983
  40       -3.321121     -3.187870
  41       -3.195725     -3.145897
  42       -3.069673     -3.001008
  43       -2.997580     -2.936893
  44       -2.966042     -2.864994
  45       -2.772143     -2.759865
  46       -2.666081     -2.640093
  47       -2.631023     -2.577570
  48       -2.621209     -2.422816
  49       -2.436406     -2.291848
  50       -2.302959     -2.279834
  51       -2.244434     -2.210984
  52       -2.172435     -2.092839
  53       -2.143689     -1.972874
  54       -2.029426     -1.910521
  55       -1.969031     -1.899295
  56       -1.892580     -1.878496
  57       -1.881583     -1.835458
  58       -1.866674     -1.708884
  59       -1.767543     -1.638901
  60       -1.671684     -1.495576
  61       -1.504219     -1.478275
  62       -1.491580     -1.384607
  63       -1.406406     -1.279152
  64       -1.246897     -1.185863
  65       -1.159670     -1.144088
  66       -0.979510     -0.951897
  67       -0.915209     -0.889270
  68       -0.887269     -0.826730
  69       -0.758721     -0.743431
  70       -0.644502     -0.645565
  71       -0.624786     -0.547963
  72       -0.573265     -0.511664
  73       -0.508570     -0.456144
  74       -0.467159     -0.427891
  75       -0.438064     -0.340337
  76       -0.414450     -0.327873
  77       -0.265393     -0.222995
  78       -0.172207     -0.134468
  79       -0.112195     -0.095238
  80       -0.031365     -0.004210
  81        0.087306      0.121753
  82        0.123270      0.159504
  83        0.238897      0.292154
  84        0.274638      0.483868
  85        0.470333      0.521345
  86        0.516428      0.603488
  87        0.580160      0.633474
  88        0.627078      0.765268
  89        0.711930      0.810298
  90        0.726233      0.849418
  91        0.805394      0.905620
  92        0.817869      0.974798
  93        0.854912      1.247828
  94        0.962564      1.312914
  95        1.030168      1.339737
  96        1.264772      1.403695
  97        1.305105      1.436053
  98        1.316346      1.550953
  99        1.378303      1.834087
 100        1.427920      1.922797
 101        1.539991      2.151255
 102        1.597012      2.253018
 103        1.730760      2.402565
 104        1.826677      2.509870
 105        2.043435      2.628602
 106        2.112621      2.906980
 107        2.253631      3.242623
 108        2.282159      3.323459
 109        2.527026      3.336380
 110        2.598823      3.389566
 111        2.802992      3.405155
 112        2.904677      3.802977
 113        3.146558      3.955743
 114        3.257979      4.224569
 115        3.350855      4.290144
 116        3.395398      4.473604
 117        3.398426      4.542320
 118        3.638290      4.571215
 119        3.725623      4.723593
 120        3.810143      4.727910
 121        3.997075      4.770490
 122        4.132017      4.783718
 123        4.178818      4.812882
 124        4.272109      4.914556
 125        4.367273      4.978894
 126        4.454477      5.102759
 127        4.489540      5.132809
 128        4.689968      5.266014
 129        4.717303      5.342955
 130        4.761158      5.405658
 131        4.776505      5.449020
 132        4.916532      5.463025
 133        4.929586      5.546314
 134        4.982255      5.595446
 135        5.101545      5.621725
 136        5.175184      5.678593
 137        5.267557      5.726256
 138        5.398690      5.776286
 139        5.449570      5.807330
 140        5.489044      5.833956
 141        5.509045      5.904434
 142        5.562408      5.958476
 143        5.605273      6.043482
 144        5.622483      6.093369
 
  0.1818182E+00  0.0000000E+00  0.0000000E+00  0.3305785E-01
   1      -24.481180    -24.501772
   2      -21.244656    -21.248362
   3      -19.888794    -19.844157
   4      -17.852962    -17.876837
   5      -16.742316    -16.751845
   6      -16.570883    -16.488695
   7      -16.099264    -15.971323
   8      -15.938408    -15.923447
   9      -15.807750    -15.769758
  10      -15.735068    -15.705577
  11      -15.566142    -15.562700
  12      -15.434403    -15.413308
  13      -15.129280    -15.111816
  14      -14.961448    -14.926816
  15      -14.882843    -14.887744
  16      -14.881032    -14.872884
  17      -14.808772    -14.793385
  18      -14.701645    -14.697184
  19      -14.599732    -14.598480
  20      -14.589671    -14.592491
  21      -14.511423    -14.510402
  22      -14.425930    -14.425195
  23      -14.396732    -14.399825
  24      -14.105206    -14.103868
  25      -13.819815    -13.820283
  26      -11.893577    -11.865042
  27      -10.928872    -10.946512
  28      -10.180849    -10.190970
  29       -6.652911     -6.665806
  30       -6.215341     -6.223319
  31       -5.703951     -5.708309
  32       -4.671031     -4.672173
  33       -4.301388     -4.248614
  34       -4.002823     -4.009394
  35       -3.604671     -3.430977
  36       -3.564831     -3.374457
  37       -3.391469     -3.336015
  38       -3.329759     -3.271834
  39       -3.287827     -3.204034
  40       -3.206722     -3.114982
  41       -3.102043     -3.056065
  42       -3.053665     -2.920596
  43       -2.929123     -2.877953
  44       -2.877344     -2.811661
  45       -2.771704     -2.660995
  46       -2.673862     -2.618890
  47       -2.648292     -2.600309
  48       -2.610493     -2.452451
  49       -2.473602     -2.392960
  50       -2.340145     -2.325455
  51       -2.306962     -2.291692
  52       -2.249218     -2.143073
  53       -2.156782     -2.018437
  54       -2.073191     -1.975399
  55       -1.997485     -1.888630
  56       -1.899935     -1.847718
  57       -1.824165     -1.767414
  58       -1.799469     -1.595462
  59       -1.700001     -1.513724
  60       -1.630617     -1.510728
  61       -1.531649     -1.481579
  62       -1.490591     -1.418828
  63       -1.411532     -1.385544
  64       -1.175860     -1.138887
  65       -1.126560     -1.109213
  66       -1.046216     -1.024540
  67       -1.035999     -0.966636
  68       -0.953111     -0.930375
  69       -0.786744     -0.772516
  70       -0.726401     -0.660173
  71       -0.678543     -0.587890
  72       -0.565328     -0.551364
  73       -0.504016     -0.481603
  74       -0.428656     -0.385382
  75       -0.390418     -0.321680
  76       -0.385133     -0.291615
  77       -0.266431     -0.244351
  78       -0.196556     -0.155428
  79       -0.105350     -0.052220
  80       -0.061176      0.010381
  81        0.091766      0.122404
  82        0.167133      0.204375
  83        0.247296      0.376996
  84        0.351377      0.426405
  85        0.417751      0.518335
  86        0.505574      0.552581
  87        0.544725      0.597932
  88        0.593470      0.656974
  89        0.660581      0.739039
  90        0.692246      0.791466
  91        0.761082      0.875674
  92        0.775984      0.980351
  93        0.863627      1.238247
  94        0.877403      1.262689
  95        1.142565      1.342903
  96        1.233267      1.396673
  97        1.311844      1.472389
  98        1.323573      1.568701
  99        1.384815      1.773093
 100        1.435516      1.837221
 101        1.536707      2.098506
 102        1.563524      2.143174
 103        1.712152      2.368303
 104        1.773205      2.533064
 105        2.014567      2.647499
 106        2.094297      2.799208
 107        2.147837      3.138691
 108        2.332132      3.222504
 109        2.382526      3.298820
 110        2.581374      3.436234
 111        2.758964      3.454442
 112        2.794875      3.916625
 113        2.962216      3.945379
 114        3.147364      4.233594
 115        3.227773      4.300424
 116        3.394085      4.476939
 117        3.452320      4.516541
 118        3.670782      4.553176
 119        3.879982      4.751116
 120        3.961625      4.767773
 121        4.093167      4.836019
 122        4.144494      4.846442
 123        4.220345      4.856262
 124        4.303736      4.918046
 125        4.410066      5.032427
 126        4.492595      5.057242
 127        4.528041      5.142924
 128        4.699200      5.326627
 129        4.709268      5.395469
 130        4.753092      5.426300
 131        4.813018      5.451800
 132        4.872058      5.483329
 133        5.013952      5.531496
 134        5.037966      5.617826
 135        5.060579      5.636932
 136        5.207691      5.661071
 137        5.385048      5.729331
 138        5.392727      5.780856
 139        5.448246      5.830972
 140        5.450908      5.876636
 141        5.514947      5.909330
 142        5.591213      6.039154
 143        5.618838      6.083287
 144        5.657677      6.149440
 
  0.2727273E+00  0.0000000E+00  0.0000000E+00  0.3305785E-01
   1      -24.476438    -24.497059
   2      -21.251069    -21.254770
   3      -19.877212    -19.832500
   4      -17.845595    -17.869408
   5      -16.766043    -16.775630
   6      -16.490173    -16.403027
   7      -16.122400    -15.998928
   8      -15.844461    -15.811530
   9      -15.826938    -15.804617
  10      -15.680930    -15.657507
  11      -15.527747    -15.525859
  12      -15.380828    -15.356862
  13      -15.137738    -15.121432
  14      -15.016606    -14.991869
  15      -14.985034    -14.989308
  16      -14.932115    -14.918293
  17      -14.811881    -14.795403
  18      -14.715805    -14.711377
  19      -14.634937    -14.638473
  20      -14.619871    -14.617443
  21      -14.540164    -14.538493
  22      -14.459146    -14.458478
  23      -14.372011    -14.374835
  24      -14.160649    -14.158954
  25      -13.760263    -13.761336
  26      -11.828377    -11.798769
  27      -10.907377    -10.926493
  28      -10.297363    -10.306852
  29       -6.626485     -6.638565
  30       -6.322230     -6.330026
  31       -5.552097     -5.559166
  32       -4.672809     -4.671800
  33       -4.293723     -4.250457
  34       -4.128808     -4.125827
  35       -3.646528     -3.472366
  36       -3.480262     -3.262990
  37       -3.341653     -3.217163
  38       -3.209391     -3.118928
  39       -3.143439     -3.079835
  40       -3.061494     -2.962187
  41       -3.029783     -2.879807
  42       -2.959583     -2.871185
  43       -2.853413     -2.800333
  44       -2.813569     -2.724207
  45       -2.754722     -2.647120
  46       -2.668206     -2.576232
  47       -2.597964     -2.544381
  48       -2.562132     -2.494271
  49       -2.510100     -2.477860
  50       -2.372456     -2.356547
  51       -2.340864     -2.285089
  52       -2.294332     -2.132242
  53       -2.157471     -2.083872
  54       -2.126346     -1.981492
  55       -1.994020     -1.894392
  56       -1.908496     -1.807849
  57       -1.832638     -1.742434
  58       -1.764057     -1.634874
  59       -1.640849     -1.632021
  60       -1.552854     -1.481365
  61       -1.528679     -1.457361
  62       -1.487291     -1.390436
  63       -1.384470     -1.354638
  64       -1.283646     -1.264277
  65       -1.248958     -1.160922
  66       -1.084121     -1.068454
  67       -1.010761     -0.976758
  68       -0.997019     -0.953654
  69       -0.942336     -0.856766
  70       -0.824352     -0.800170
  71       -0.757308     -0.651294
  72       -0.589501     -0.552333
  73       -0.508156     -0.503646
  74       -0.458224     -0.369462
  75       -0.374903     -0.317604
  76       -0.301977     -0.261593
  77       -0.260532     -0.247585
  78       -0.129697     -0.096300
  79       -0.123338     -0.025183
  80       -0.002449      0.026063
  81        0.087261      0.106354
  82        0.172135      0.241547
  83        0.252253      0.306828
  84        0.257456      0.346388
  85        0.328409      0.435946
  86        0.440683      0.502627
  87        0.497176      0.544846
  88        0.620479      0.671032
  89        0.661816      0.686971
  90        0.687373      0.784283
  91        0.763948      0.882241
  92        0.781844      1.060645
  93        0.837642      1.186006
  94        0.899142      1.218806
  95        1.166094      1.371297
  96        1.194793      1.381317
  97        1.315639      1.515742
  98        1.340804      1.589125
  99        1.380292      1.666832
 100        1.478441      1.723555
 101        1.559581      1.942261
 102        1.577039      2.103643
 103        1.671232      2.215247
 104        1.710234      2.514774
 105        1.897746      2.657325
 106        1.959707      2.761560
 107        2.146271      3.004231
 108        2.221825      3.135940
 109        2.334968      3.280070
 110        2.544817      3.495717
 111        2.654660      3.519762
 112        2.730759      3.979455
 113        2.798825      4.001826
 114        3.073573      4.243717
 115        3.155633      4.320168
 116        3.370585      4.436761
 117        3.524725      4.487842
 118        3.649142      4.546939
 119        3.980662      4.719304
 120        4.045629      4.743613
 121        4.169749      4.811843
 122        4.241827      4.891058
 123        4.311869      4.922778
 124        4.348147      5.011048
 125        4.465171      5.095786
 126        4.482254      5.127198
 127        4.575449      5.179418
 128        4.649404      5.293982
 129        4.699332      5.389576
 130        4.763414      5.438657
 131        4.794597      5.502216
 132        4.897898      5.521599
 133        5.076624      5.534076
 134        5.100257      5.590758
 135        5.115988      5.641083
 136        5.235032      5.728394
 137        5.349385      5.771656
 138        5.410159      5.802030
 139        5.436517      5.902072
 140        5.538447      5.953684
 141        5.577930      6.038997
 142        5.616497      6.080199
 143        5.649984      6.109612
 144        5.731901      6.148046
 
  0.3636364E+00  0.0000000E+00  0.0000000E+00  0.3305785E-01
   1      -24.472015    -24.492664
   2      -21.256881    -21.260577
   3      -19.866458    -19.821674
   4      -17.838450    -17.862207
   5      -16.787850    -16.797411
   6      -16.395228    -16.301172
   7      -16.161088    -16.043390
   8      -15.878385    -15.838129
   9      -15.681413    -15.664534
  10      -15.609334    -15.593376
  11      -15.483558    -15.482878
  12      -15.336193    -15.306326
  13      -15.171647    -15.151110
  14      -15.105278    -15.107301
  15      -15.098120    -15.091453
  16      -14.951597    -14.933330
  17      -14.846030    -14.830273
  18      -14.726831    -14.720778
  19      -14.672977    -14.676615
  20      -14.637646    -14.634804
  21      -14.577278    -14.574237
  22      -14.470710    -14.470041
  23      -14.349425    -14.352005
  24      -14.196862    -14.195036
  25      -13.715516    -13.717006
  26      -11.767902    -11.737130
  27      -10.870176    -10.891663
  28      -10.421463    -10.429542
  29       -6.597500     -6.607869
  30       -6.415861     -6.424823
  31       -5.370386     -5.382325
  32       -4.752847     -4.746319
  33       -4.291369     -4.266484
  34       -4.187401     -4.168066
  35       -3.682786     -3.524419
  36       -3.451946     -3.231684
  37       -3.379397     -3.137943
  38       -3.120096     -3.040012
  39       -3.053855     -2.941925
  40       -2.958234     -2.812580
  41       -2.948974     -2.761916
  42       -2.822268     -2.701780
  43       -2.729786     -2.674660
  44       -2.683920     -2.632056
  45       -2.641042     -2.618500
  46       -2.633167     -2.566397
  47       -2.588249     -2.530573
  48       -2.506371     -2.493920
  49       -2.498816     -2.388184
  50       -2.434791     -2.271665
  51       -2.288316     -2.210364
  52       -2.269040     -2.189368
  53       -2.195167     -2.022907
  54       -2.037255     -2.011110
  55       -2.022023     -1.911338
  56       -1.922136     -1.908860
  57       -1.820592     -1.722156
  58       -1.729233     -1.674871
  59       -1.669775     -1.659292
  60       -1.595510     -1.557216
  61       -1.541215     -1.511705
  62       -1.525264     -1.455631
  63       -1.475661     -1.421022
  64       -1.436833     -1.417267
  65       -1.246965     -1.221883
  66       -1.138096     -1.096473
  67       -1.108808     -1.031505
  68       -1.069727     -0.937692
  69       -0.889479     -0.862406
  70       -0.850231     -0.782282
  71       -0.811794     -0.686873
  72       -0.690211     -0.653623
  73       -0.593358     -0.569648
  74       -0.473681     -0.399960
  75       -0.375780     -0.318539
  76       -0.277275     -0.249031
  77       -0.256863     -0.233031
  78       -0.204977     -0.121773
  79       -0.055980     -0.026467
  80        0.001196      0.026669
  81        0.056596      0.108562
  82        0.132868      0.158684
  83        0.212113      0.264815
  84        0.251041      0.287187
  85        0.350412      0.436644
  86        0.416267      0.504695
  87        0.497520      0.537831
  88        0.604169      0.702551
  89        0.677241      0.712662
  90        0.704678      0.808805
  91        0.815917      0.977842
  92        0.839191      1.099776
  93        0.901710      1.173424
  94        0.979530      1.232546
  95        1.125267      1.343937
  96        1.172693      1.390391
  97        1.268579      1.475883
  98        1.315083      1.509314
  99        1.369931      1.572022
 100        1.501919      1.672562
 101        1.549587      1.780285
 102        1.585083      2.057992
 103        1.611728      2.138894
 104        1.671812      2.437546
 105        1.776117      2.529444
 106        1.840627      2.824784
 107        2.115091      2.871132
 108        2.170635      3.094665
 109        2.261212      3.343021
 110        2.460750      3.544532
 111        2.510170      3.589041
 112        2.745270      4.042217
 113        2.791377      4.061780
 114        3.042300      4.265485
 115        3.131930      4.321589
 116        3.323444      4.382158
 117        3.591946      4.462551
 118        3.640823      4.492057
 119        4.031244      4.646782
 120        4.058718      4.710326
 121        4.222948      4.770245
 122        4.295886      4.912257
 123        4.337214      4.955596
 124        4.389385      5.055127
 125        4.418887      5.129878
 126        4.549428      5.180919
 127        4.578129      5.234519
 128        4.642723      5.333714
 129        4.677808      5.392000
 130        4.759947      5.469027
 131        4.859039      5.508376
 132        4.945610      5.580479
 133        5.081394      5.609097
 134        5.113367      5.656728
 135        5.193500      5.665988
 136        5.262654      5.757271
 137        5.409229      5.786663
 138        5.455979      5.852477
 139        5.509251      5.963689
 140        5.605881      5.985713
 141        5.629680      6.040493
 142        5.642175      6.088909
 143        5.707040      6.118819
 144        5.747657      6.243500
 
  0.4545455E+00  0.0000000E+00  0.0000000E+00  0.3305785E-01
   1      -24.469408    -24.490071
   2      -21.260370    -21.264062
   3      -19.860178    -19.815348
   4      -17.833960    -17.857685
   5      -16.800957    -16.810479
   6      -16.302811    -16.200856
   7      -16.218352    -16.107428
   8      -15.898308    -15.857842
   9      -15.541858    -15.532608
  10      -15.517227    -15.500022
  11      -15.452267    -15.449507
  12      -15.353472    -15.322208
  13      -15.270797    -15.254268
  14      -15.204168    -15.203118
  15      -15.100311    -15.095779
  16      -14.944974    -14.926587
  17      -14.900590    -14.885322
  18      -14.722484    -14.714249
  19      -14.693686    -14.697370
  20      -14.664137    -14.662353
  21      -14.589726    -14.585355
  22      -14.472859    -14.472142
  23      -14.336397    -14.338847
  24      -14.213689    -14.211827
  25      -13.691576    -13.693283
  26      -11.731775    -11.700231
  27      -10.829259    -10.853819
  28      -10.513312    -10.518974
  29       -6.568350     -6.575402
  30       -6.480447     -6.492478
  31       -5.188630     -5.213917
  32       -4.898136     -4.877554
  33       -4.261118     -4.246653
  34       -4.220151     -4.192804
  35       -3.675646     -3.550027
  36       -3.543738     -3.266028
  37       -3.380100     -3.078245
  38       -3.075586     -3.036306
  39       -3.005242     -2.872545
  40       -2.883889     -2.807034
  41       -2.858728     -2.691147
  42       -2.821597     -2.647427
  43       -2.710064     -2.594837
  44       -2.632789     -2.564223
  45       -2.568904     -2.542642
  46       -2.546599     -2.458202
  47       -2.512591     -2.368095
  48       -2.458854     -2.339904
  49       -2.390932     -2.281606
  50       -2.362238     -2.254157
  51       -2.270814     -2.209368
  52       -2.182980     -2.142082
  53       -2.140245     -2.083313
  54       -2.094493     -2.015265
  55       -1.994332     -1.966683
  56       -1.928735     -1.915093
  57       -1.877378     -1.788829
  58       -1.795038     -1.775575
  59       -1.754659     -1.726416
  60       -1.674747     -1.643892
  61       -1.653699     -1.578278
  62       -1.571397     -1.556989
  63       -1.504441     -1.493275
  64       -1.370303     -1.350620
  65       -1.253687     -1.240008
  66       -1.165881     -1.147963
  67       -1.150824     -0.976277
  68       -1.005588     -0.957757
  69       -0.981781     -0.891576
  70       -0.917889     -0.862083
  71       -0.818593     -0.745163
  72       -0.795054     -0.639998
  73       -0.646402     -0.619987
  74       -0.518700     -0.492292
  75       -0.373142     -0.345552
  76       -0.350592     -0.312285
  77       -0.223583     -0.105054
  78       -0.098233     -0.067400
  79       -0.088475     -0.052752
  80       -0.082936     -0.001202
  81       -0.008631      0.006179
  82        0.122776      0.137218
  83        0.244817      0.224753
  84        0.323575      0.417301
  85        0.386933      0.428224
  86        0.414150      0.519304
  87        0.518929      0.557906
  88        0.610542      0.656533
  89        0.648367      0.822525
  90        0.779957      0.874731
  91        0.847211      0.961654
  92        0.896205      1.123958
  93        0.966399      1.189997
  94        1.037585      1.266036
  95        1.122186      1.326846
  96        1.161540      1.347360
  97        1.202476      1.374476
  98        1.297927      1.462194
  99        1.355713      1.484236
 100        1.393562      1.697670
 101        1.454579      1.742767
 102        1.573873      1.962257
 103        1.625124      2.088951
 104        1.693962      2.426050
 105        1.737852      2.509383
 106        1.765541      2.667487
 107        2.055758      2.889204
 108        2.178381      3.083278
 109        2.225751      3.449750
 110        2.397175      3.551368
 111        2.398558      3.634763
 112        2.751882      4.075841
 113        2.871274      4.114633
 114        3.061813      4.275606
 115        3.137851      4.298478
 116        3.246804      4.379335
 117        3.618521      4.395374
 118        3.653714      4.493051
 119        4.063026      4.603151
 120        4.079240      4.659798
 121        4.218631      4.732747